TITLE = Flow Solution
VARIABLES = X, Y, Rho, Mach, P, u, v
Zone T = Omega I = 80 J = 22
0.0125	0.0625	1.40003	0.109755	0.999976	-0.109752	0.000146468
0.0375	0.0625	1.40013	0.109792	1.00008	-0.109791	0.00016894
0.0625	0.0625	1.40033	0.109627	1.00026	-0.109629	0.000168463
0.0875	0.0625	1.40991	0.109342	1.00716	-0.109346	6.03683e-05
0.1125	0.0625	1.41124	0.109669	1.00798	-0.109666	1.58147e-06
0.1375	0.0625	1.41119	0.109735	1.00801	-0.109736	-4.7681e-06
0.1625	0.0625	1.41063	0.109748	1.00762	-0.10975	-4.2532e-06
0.1875	0.0625	1.40997	0.109751	1.00715	-0.109753	-3.48006e-06
0.2125	0.0625	1.40926	0.109753	1.00665	-0.109755	-2.8419e-06
0.2375	0.0625	1.40853	0.109755	1.00612	-0.109757	-2.34664e-06
0.2625	0.0625	1.40776	0.109756	1.00558	-0.109758	-1.90415e-06
0.2875	0.0625	1.40698	0.109757	1.00502	-0.109758	-1.53309e-06
0.3125	0.0625	1.40619	0.109757	1.00446	-0.109759	-1.21838e-06
0.3375	0.0625	1.4054	0.109757	1.00389	-0.109759	-9.48386e-07
0.3625	0.0625	1.4046	0.109757	1.00332	-0.109759	-7.15869e-07
0.3875	0.0625	1.40381	0.109757	1.00276	-0.109759	-5.15629e-07
0.4125	0.0625	1.40304	0.109756	1.0022	-0.109758	-3.43398e-07
0.4375	0.0625	1.40228	0.109755	1.00166	-0.109757	-1.95712e-07
0.4625	0.0625	1.40154	0.109754	1.00114	-0.109756	-6.96858e-08
0.4875	0.0625	1.40083	0.109753	1.00063	-0.109755	3.73308e-08
0.5125	0.0625	1.40014	0.109752	1.00014	-0.109754	1.27257e-07
0.5375	0.0625	1.39949	0.10975	0.999672	-0.109752	2.02046e-07
0.5625	0.0625	1.39888	0.109748	0.999231	-0.10975	2.63202e-07
0.5875	0.0625	1.3983	0.109747	0.998817	-0.109749	3.12043e-07
0.6125	0.0625	1.39775	0.109745	0.99843	-0.109747	3.49845e-07
0.6375	0.0625	1.39725	0.109743	0.998074	-0.109745	3.77473e-07
0.6625	0.0625	1.3968	0.109741	0.997747	-0.109743	3.95297e-07
0.6875	0.0625	1.39638	0.109739	0.997451	-0.109741	4.07397e-07
0.7125	0.0625	1.39601	0.109737	0.997187	-0.109739	4.113e-07
0.7375	0.0625	1.39569	0.109735	0.996954	-0.109736	4.08998e-07
0.7625	0.0625	1.39541	0.109732	0.996753	-0.109734	4.01197e-07
0.7875	0.0625	1.39517	0.10973	0.996584	-0.109732	3.88524e-07
0.8125	0.0625	1.39497	0.109728	0.996445	-0.10973	3.71647e-07
0.8375	0.0625	1.39482	0.109726	0.996337	-0.109728	3.51158e-07
0.8625	0.0625	1.39471	0.109724	0.996259	-0.109726	3.27608e-07
0.8875	0.0625	1.39465	0.109722	0.99621	-0.109724	3.01518e-07
0.9125	0.0625	1.39462	0.109721	0.996189	-0.109723	2.74766e-07
0.9375	0.0625	1.39462	0.109719	0.996192	-0.109721	2.42486e-07
0.9625	0.0625	1.39466	0.109717	0.996223	-0.109719	2.1252e-07
0.9875	0.0625	1.39474	0.109716	0.996277	-0.109718	1.81076e-07
1.0125	0.0625	1.39485	0.109714	0.996353	-0.109716	1.4827e-07
1.0375	0.0625	1.39498	0.109713	0.99645	-0.109715	1.15184e-07
1.0625	0.0625	1.39514	0.109712	0.996565	-0.109714	8.40098e-08
1.0875	0.0625	1.39533	0.109711	0.996699	-0.109712	5.2441e-08
1.1125	0.0625	1.39554	0.10971	0.996847	-0.109711	2.16196e-08
1.1375	0.0625	1.39577	0.109709	0.99701	-0.109711	-7.94081e-09
1.1625	0.0625	1.39601	0.109708	0.997185	-0.10971	-3.88453e-08
1.1875	0.0625	1.39627	0.109707	0.99737	-0.109709	-6.74148e-08
1.2125	0.0625	1.39654	0.109707	0.997564	-0.109709	-9.45419e-08
1.2375	0.0625	1.39682	0.109706	0.997764	-0.109708	-1.20206e-07
1.2625	0.0625	1.39711	0.109706	0.99797	-0.109708	-1.44371e-07
1.2875	0.0625	1.3974	0.109706	0.99818	-0.109708	-1.66924e-07
1.3125	0.0625	1.3977	0.109706	0.998391	-0.109708	-1.87838e-07
1.3375	0.0625	1.398	0.109706	0.998604	-0.109708	-2.07059e-07
1.3625	0.0625	1.39829	0.109706	0.998815	-0.109708	-2.24577e-07
1.3875	0.0625	1.39859	0.109706	0.999024	-0.109708	-2.40347e-07
1.4125	0.0625	1.39888	0.109706	0.99923	-0.109708	-2.54565e-07
1.4375	0.0625	1.39916	0.109707	0.999431	-0.109708	-2.67245e-07
1.4625	0.0625	1.39943	0.109707	0.999626	-0.109709	-2.78304e-07
1.4875	0.0625	1.39969	0.109707	0.999814	-0.109709	-2.87724e-07
1.5125	0.0625	1.39995	0.109708	0.999995	-0.10971	-2.96654e-07
1.5375	0.0625	1.40019	0.109709	1.00017	-0.10971	-3.04194e-07
1.5625	0.0625	1.40042	0.109709	1.00033	-0.109711	-3.07728e-07
1.5875	0.0625	1.40063	0.10971	1.00048	-0.109712	-3.08901e-07
1.6125	0.0625	1.40083	0.10971	1.00063	-0.109712	-3.09648e-07
1.6375	0.0625	1.40101	0.109711	1.00076	-0.109713	-3.09535e-07
1.6625	0.0625	1.40118	0.109712	1.00088	-0.109714	-3.10386e-07
1.6875	0.0625	1.40133	0.109713	1.00099	-0.109715	-3.09489e-07
1.7125	0.0625	1.40147	0.109714	1.00108	-0.109715	-3.07351e-07
1.7375	0.0625	1.40159	0.109714	1.00117	-0.109716	-3.0318e-07
1.7625	0.0625	1.40169	0.109715	1.00124	-0.109717	-2.97813e-07
1.7875	0.0625	1.40178	0.109716	1.00131	-0.109718	-2.9226e-07
1.8125	0.0625	1.40185	0.109717	1.00136	-0.109718	-2.86351e-07
1.8375	0.0625	1.40191	0.109717	1.0014	-0.109719	-2.79922e-07
1.8625	0.0625	1.40195	0.109718	1.00143	-0.10972	-2.73012e-07
1.8875	0.0625	1.40197	0.109719	1.00144	-0.109721	-2.65746e-07
1.9125	0.0625	1.40198	0.10972	1.00145	-0.109721	-2.59035e-07
1.9375	0.0625	1.40197	0.109721	1.00144	-0.109723	-2.69316e-07
1.9625	0.0625	1.40195	0.109756	1.00139	-0.109756	-1.18163e-07
1.9875	0.0625	1.40193	0.10979	1.00135	-0.109788	3.29896e-08
0.0125	0.104167	1.40003	0.499998	0.999976	0.499987	-0.00066725
0.0375	0.104167	1.40013	0.500278	1.00008	0.500274	-0.000769633
0.0625	0.104167	1.40033	0.499525	1.00026	0.499531	-0.000767458
0.0875	0.104167	1.40991	0.498226	1.00716	0.498244	-0.00027502
0.1125	0.104167	1.41124	0.499713	1.00797	0.4997	-7.20405e-06
0.1375	0.104167	1.41119	0.500016	1.00801	0.500019	2.17219e-05
0.1625	0.104167	1.41063	0.500076	1.00761	0.500082	1.93762e-05
0.1875	0.104167	1.40997	0.500091	1.00715	0.500097	1.5854e-05
0.2125	0.104167	1.40926	0.5001	1.00664	0.500106	1.29467e-05
0.2375	0.104167	1.40853	0.500107	1.00612	0.500113	1.06905e-05
0.2625	0.104167	1.40776	0.500112	1.00557	0.500119	8.67468e-06
0.2875	0.104167	1.40698	0.500115	1.00502	0.500122	6.98424e-06
0.3125	0.104167	1.40619	0.500117	1.00445	0.500124	5.55052e-06
0.3375	0.104167	1.4054	0.500118	1.00388	0.500125	4.32054e-06
0.3625	0.104167	1.4046	0.500117	1.00332	0.500125	3.26127e-06
0.3875	0.104167	1.40381	0.500116	1.00275	0.500123	2.34904e-06
0.4125	0.104167	1.40304	0.500113	1.0022	0.50012	1.56442e-06
0.4375	0.104167	1.40228	0.500109	1.00166	0.500117	8.91612e-07
0.4625	0.104167	1.40154	0.500105	1.00113	0.500112	3.17478e-07
0.4875	0.104167	1.40083	0.500099	1.00062	0.500107	-1.70054e-07
0.5125	0.104167	1.40014	0.500093	1.00013	0.5001	-5.79726e-07
0.5375	0.104167	1.39949	0.500086	0.999668	0.500093	-9.20445e-07
0.5625	0.104167	1.39888	0.500078	0.999227	0.500086	-1.19905e-06
0.5875	0.104167	1.3983	0.50007	0.998813	0.500078	-1.42155e-06
0.6125	0.104167	1.39775	0.500062	0.998426	0.500069	-1.59377e-06
0.6375	0.104167	1.39725	0.500053	0.99807	0.50006	-1.71963e-06
0.6625	0.104167	1.3968	0.500044	0.997743	0.500051	-1.80084e-06
0.6875	0.104167	1.39638	0.500034	0.997447	0.500042	-1.85596e-06
0.7125	0.104167	1.39601	0.500025	0.997183	0.500032	-1.87374e-06
0.7375	0.104167	1.39569	0.500015	0.99695	0.500023	-1.86326e-06
0.7625	0.104167	1.39541	0.500006	0.996749	0.500013	-1.82772e-06
0.7875	0.104167	1.39517	0.499996	0.99658	0.500004	-1.76999e-06
0.8125	0.104167	1.39497	0.499987	0.996441	0.499995	-1.6931e-06
0.8375	0.104167	1.39482	0.499978	0.996333	0.499985	-1.59977e-06
0.8625	0.104167	1.39471	0.499969	0.996255	0.499976	-1.49248e-06
0.8875	0.104167	1.39465	0.49996	0.996206	0.499968	-1.37362e-06
0.9125	0.104167	1.39462	0.499952	0.996185	0.499959	-1.25175e-06
0.9375	0.104167	1.39462	0.499944	0.996188	0.499951	-1.1047e-06
0.9625	0.104167	1.39466	0.499936	0.996219	0.499944	-9.68186e-07
0.9875	0.104167	1.39474	0.499929	0.996273	0.499937	-8.24937e-07
1.0125	0.104167	1.39485	0.499923	0.996349	0.49993	-6.75487e-07
1.0375	0.104167	1.39498	0.499917	0.996446	0.499924	-5.24759e-07
1.0625	0.104167	1.39514	0.499911	0.996561	0.499919	-3.8274e-07
1.0875	0.104167	1.39533	0.499906	0.996695	0.499913	-2.38924e-07
1.1125	0.104167	1.39554	0.499901	0.996843	0.499909	-9.85131e-08
1.1375	0.104167	1.39577	0.499897	0.997006	0.499905	3.61538e-08
1.1625	0.104167	1.39601	0.499894	0.997181	0.499901	1.76943e-07
1.1875	0.104167	1.39627	0.499891	0.997366	0.499898	3.07096e-07
1.2125	0.104167	1.39654	0.499888	0.99756	0.499896	4.30677e-07
1.2375	0.104167	1.39682	0.499886	0.99776	0.499894	5.47593e-07
1.2625	0.104167	1.39711	0.499885	0.997966	0.499892	6.57683e-07
1.2875	0.104167	1.3974	0.499884	0.998176	0.499891	7.60426e-07
1.3125	0.104167	1.3977	0.499883	0.998387	0.499891	8.557e-07
1.3375	0.104167	1.398	0.499883	0.9986	0.499891	9.43266e-07
1.3625	0.104167	1.39829	0.499884	0.998811	0.499891	1.02307e-06
1.3875	0.104167	1.39859	0.499885	0.99902	0.499892	1.09492e-06
1.4125	0.104167	1.39888	0.499886	0.999226	0.499893	1.15969e-06
1.4375	0.104167	1.39916	0.499887	0.999427	0.499895	1.21745e-06
1.4625	0.104167	1.39943	0.499889	0.999622	0.499896	1.26784e-06
1.4875	0.104167	1.39969	0.499891	0.99981	0.499899	1.31075e-06
1.5125	0.104167	1.39995	0.499894	0.999991	0.499901	1.35143e-06
1.5375	0.104167	1.40019	0.499896	1.00016	0.499904	1.38578e-06
1.5625	0.104167	1.40042	0.499899	1.00033	0.499906	1.40188e-06
1.5875	0.104167	1.40063	0.499902	1.00048	0.499909	1.40723e-06
1.6125	0.104167	1.40083	0.499905	1.00062	0.499913	1.41063e-06
1.6375	0.104167	1.40101	0.499909	1.00075	0.499916	1.41011e-06
1.6625	0.104167	1.40118	0.499912	1.00087	0.499919	1.41399e-06
1.6875	0.104167	1.40133	0.499915	1.00098	0.499923	1.40991e-06
1.7125	0.104167	1.40147	0.499919	1.00108	0.499926	1.40017e-06
1.7375	0.104167	1.40159	0.499922	1.00117	0.49993	1.38117e-06
1.7625	0.104167	1.40169	0.499926	1.00124	0.499933	1.35672e-06
1.7875	0.104167	1.40178	0.499929	1.0013	0.499937	1.33142e-06
1.8125	0.104167	1.40185	0.499933	1.00135	0.49994	1.3045e-06
1.8375	0.104167	1.40191	0.499936	1.00139	0.499944	1.27521e-06
1.8625	0.104167	1.40195	0.49994	1.00142	0.499947	1.24373e-06
1.8875	0.104167	1.40197	0.499943	1.00144	0.49995	1.21063e-06
1.9125	0.104167	1.40198	0.499946	1.00145	0.499954	1.18006e-06
1.9375	0.104167	1.40197	0.499954	1.00143	0.49996	1.2269e-06
1.9625	0.104167	1.40195	0.500003	1.00139	0.500002	5.38304e-07
1.9875	0.104167	1.40193	0.500092	1.00134	0.500083	-1.50288e-07
0.0125	0.145833	1.41007	0.49828	1.00724	0.498293	-0.000623086
0.0375	0.145833	1.41164	0.499646	1.00822	0.499623	-0.000717238
0.0625	0.145833	1.41196	0.499935	1.00851	0.499926	-0.000716786
0.0875	0.145833	1.41176	0.499994	1.00838	0.499989	-8.30162e-05
0.1125	0.145833	1.41142	0.500015	1.00815	0.500013	3.1647e-05
0.1375	0.145833	1.41094	0.500036	1.00781	0.500035	4.07657e-05
0.1625	0.145833	1.41038	0.500051	1.00741	0.500051	3.60633e-05
0.1875	0.145833	1.40976	0.500064	1.00697	0.500063	3.10439e-05
0.2125	0.145833	1.40909	0.500073	1.00649	0.500073	2.65789e-05
0.2375	0.145833	1.40838	0.500081	1.00598	0.500081	2.26771e-05
0.2625	0.145833	1.40764	0.500087	1.00546	0.500087	1.92558e-05
0.2875	0.145833	1.40688	0.500092	1.00491	0.500091	1.62633e-05
0.3125	0.145833	1.40611	0.500094	1.00436	0.500094	1.36415e-05
0.3375	0.145833	1.40533	0.500095	1.00381	0.500095	1.13404e-05
0.3625	0.145833	1.40455	0.500095	1.00325	0.500095	9.31812e-06
0.3875	0.145833	1.40377	0.500094	1.00269	0.500094	7.53888e-06
0.4125	0.145833	1.40301	0.500092	1.00215	0.500092	5.97387e-06
0.4375	0.145833	1.40226	0.500088	1.00161	0.500088	4.59789e-06
0.4625	0.145833	1.40153	0.500084	1.00109	0.500084	3.38973e-06
0.4875	0.145833	1.40082	0.500078	1.00059	0.500079	2.33184e-06
0.5125	0.145833	1.40014	0.500072	1.0001	0.500073	1.40841e-06
0.5375	0.145833	1.3995	0.500066	0.999641	0.500066	6.03384e-07
0.5625	0.145833	1.39888	0.500058	0.999204	0.500058	-9.11763e-08
0.5875	0.145833	1.39831	0.50005	0.998792	0.50005	-6.86502e-07
0.6125	0.145833	1.39777	0.500042	0.998408	0.500042	-1.19203e-06
0.6375	0.145833	1.39727	0.500033	0.998054	0.500033	-1.61518e-06
0.6625	0.145833	1.39682	0.500024	0.997729	0.500024	-1.97026e-06
0.6875	0.145833	1.39641	0.500015	0.997434	0.500015	-2.24787e-06
0.7125	0.145833	1.39604	0.500005	0.997171	0.500006	-2.46859e-06
0.7375	0.145833	1.39571	0.499996	0.996939	0.499996	-2.63492e-06
0.7625	0.145833	1.39543	0.499986	0.996739	0.499987	-2.7514e-06
0.7875	0.145833	1.3952	0.499977	0.99657	0.499977	-2.82279e-06
0.8125	0.145833	1.395	0.499968	0.996431	0.499968	-2.85368e-06
0.8375	0.145833	1.39485	0.499959	0.996323	0.499959	-2.84836e-06
0.8625	0.145833	1.39474	0.49995	0.996245	0.49995	-2.81077e-06
0.8875	0.145833	1.39467	0.499941	0.996195	0.499941	-2.74462e-06
0.9125	0.145833	1.39464	0.499933	0.996174	0.499933	-2.65464e-06
0.9375	0.145833	1.39465	0.499925	0.996177	0.499925	-2.53914e-06
0.9625	0.145833	1.39469	0.499918	0.996207	0.499918	-2.4082e-06
0.9875	0.145833	1.39476	0.49991	0.99626	0.499911	-2.26086e-06
1.0125	0.145833	1.39487	0.499904	0.996336	0.499904	-2.10433e-06
1.0375	0.145833	1.395	0.499898	0.996432	0.499898	-1.93535e-06
1.0625	0.145833	1.39516	0.499892	0.996546	0.499892	-1.75042e-06
1.0875	0.145833	1.39535	0.499887	0.996679	0.499887	-1.56017e-06
1.1125	0.145833	1.39556	0.499882	0.996827	0.499883	-1.368e-06
1.1375	0.145833	1.39578	0.499878	0.996988	0.499879	-1.17303e-06
1.1625	0.145833	1.39603	0.499875	0.997162	0.499875	-9.76333e-07
1.1875	0.145833	1.39628	0.499872	0.997346	0.499872	-7.80165e-07
1.2125	0.145833	1.39655	0.499869	0.997539	0.49987	-5.85636e-07
1.2375	0.145833	1.39683	0.499868	0.997739	0.499868	-3.93927e-07
1.2625	0.145833	1.39712	0.499866	0.997944	0.499866	-2.06182e-07
1.2875	0.145833	1.39741	0.499865	0.998153	0.499865	-2.33156e-08
1.3125	0.145833	1.39771	0.499865	0.998364	0.499865	1.53833e-07
1.3375	0.145833	1.398	0.499865	0.998575	0.499865	3.24472e-07
1.3625	0.145833	1.3983	0.499865	0.998786	0.499865	4.87979e-07
1.3875	0.145833	1.39859	0.499866	0.998994	0.499866	6.43861e-07
1.4125	0.145833	1.39888	0.499867	0.999199	0.499867	7.91695e-07
1.4375	0.145833	1.39916	0.499868	0.999399	0.499868	9.31125e-07
1.4625	0.145833	1.39943	0.49987	0.999594	0.49987	1.06272e-06
1.4875	0.145833	1.39969	0.499872	0.999782	0.499872	1.19422e-06
1.5125	0.145833	1.39995	0.499875	0.999962	0.499875	1.33276e-06
1.5375	0.145833	1.40019	0.499877	1.00013	0.499877	1.41565e-06
1.5625	0.145833	1.40041	0.49988	1.0003	0.49988	1.49724e-06
1.5875	0.145833	1.40063	0.499883	1.00045	0.499883	1.5806e-06
1.6125	0.145833	1.40083	0.499886	1.00059	0.499886	1.65745e-06
1.6375	0.145833	1.40101	0.49989	1.00072	0.49989	1.72571e-06
1.6625	0.145833	1.40118	0.499893	1.00084	0.499893	1.78583e-06
1.6875	0.145833	1.40133	0.499896	1.00095	0.499896	1.83748e-06
1.7125	0.145833	1.40147	0.4999	1.00105	0.4999	1.88117e-06
1.7375	0.145833	1.40159	0.499903	1.00113	0.499903	1.91731e-06
1.7625	0.145833	1.40169	0.499907	1.00121	0.499907	1.9462e-06
1.7875	0.145833	1.40178	0.49991	1.00127	0.49991	1.96822e-06
1.8125	0.145833	1.40185	0.499914	1.00132	0.499914	1.98377e-06
1.8375	0.145833	1.4019	0.499917	1.00136	0.499917	1.99319e-06
1.8625	0.145833	1.40194	0.49992	1.00139	0.49992	1.99689e-06
1.8875	0.145833	1.40197	0.499924	1.00141	0.499924	1.99525e-06
1.9125	0.145833	1.40198	0.499927	1.00141	0.499927	1.98475e-06
1.9375	0.145833	1.40197	0.499934	1.0014	0.499933	1.75622e-06
1.9625	0.145833	1.40195	0.499999	1.00138	0.499998	4.59922e-07
1.9875	0.145833	1.40192	0.500064	1.00137	0.500062	-8.36378e-07
0.0125	0.1875	1.40972	0.498342	1.00699	0.498355	3.40646e-05
0.0375	0.1875	1.41123	0.499711	1.00794	0.499691	3.94931e-05
0.0625	0.1875	1.41157	0.499994	1.00823	0.499987	3.82523e-05
0.0875	0.1875	1.41139	0.500055	1.00813	0.500054	4.91698e-05
0.1125	0.1875	1.41104	0.50008	1.00788	0.500079	4.99647e-05
0.1375	0.1875	1.41059	0.500098	1.00756	0.500097	4.51549e-05
0.1625	0.1875	1.41008	0.500113	1.00719	0.500113	3.99284e-05
0.1875	0.1875	1.40949	0.500126	1.00678	0.500126	3.49257e-05
0.2125	0.1875	1.40886	0.500137	1.00633	0.500137	3.02753e-05
0.2375	0.1875	1.40819	0.500146	1.00585	0.500145	2.60208e-05
0.2625	0.1875	1.40748	0.500152	1.00534	0.500152	2.21658e-05
0.2875	0.1875	1.40675	0.500157	1.00482	0.500157	1.86942e-05
0.3125	0.1875	1.406	0.500161	1.00428	0.500161	1.558e-05
0.3375	0.1875	1.40524	0.500163	1.00374	0.500162	1.27934e-05
0.3625	0.1875	1.40447	0.500163	1.0032	0.500163	1.03055e-05
0.3875	0.1875	1.40371	0.500162	1.00265	0.500162	8.08796e-06
0.4125	0.1875	1.40296	0.50016	1.00212	0.50016	6.11547e-06
0.4375	0.1875	1.40223	0.500157	1.00159	0.500157	4.36477e-06
0.4625	0.1875	1.40151	0.500153	1.00108	0.500153	2.81508e-06
0.4875	0.1875	1.40081	0.500148	1.00058	0.500148	1.44865e-06
0.5125	0.1875	1.40014	0.500142	1.0001	0.500142	2.46596e-07
0.5375	0.1875	1.3995	0.500136	0.999645	0.500136	-8.01242e-07
0.5625	0.1875	1.3989	0.500129	0.999212	0.500129	-1.71215e-06
0.5875	0.1875	1.39833	0.500121	0.998805	0.500121	-2.49707e-06
0.6125	0.1875	1.39779	0.500113	0.998424	0.500113	-3.16677e-06
0.6375	0.1875	1.3973	0.500104	0.998072	0.500104	-3.73211e-06
0.6625	0.1875	1.39685	0.500095	0.997749	0.500096	-4.20101e-06
0.6875	0.1875	1.39644	0.500086	0.997457	0.500086	-4.58191e-06
0.7125	0.1875	1.39607	0.500077	0.997195	0.500077	-4.88363e-06
0.7375	0.1875	1.39575	0.500068	0.996964	0.500068	-5.1123e-06
0.7625	0.1875	1.39547	0.500058	0.996764	0.500058	-5.27503e-06
0.7875	0.1875	1.39523	0.500049	0.996596	0.500049	-5.37822e-06
0.8125	0.1875	1.39504	0.50004	0.996458	0.50004	-5.42769e-06
0.8375	0.1875	1.39489	0.500031	0.99635	0.500031	-5.42893e-06
0.8625	0.1875	1.39478	0.500022	0.996271	0.500022	-5.38708e-06
0.8875	0.1875	1.39471	0.500013	0.996221	0.500014	-5.30699e-06
0.9125	0.1875	1.39468	0.500005	0.996199	0.500005	-5.19458e-06
0.9375	0.1875	1.39468	0.499997	0.996202	0.499997	-5.04874e-06
0.9625	0.1875	1.39472	0.49999	0.996231	0.49999	-4.88052e-06
0.9875	0.1875	1.3948	0.499983	0.996283	0.499983	-4.68966e-06
1.0125	0.1875	1.3949	0.499976	0.996357	0.499976	-4.48037e-06
1.0375	0.1875	1.39503	0.49997	0.996452	0.49997	-4.25646e-06
1.0625	0.1875	1.39519	0.499965	0.996566	0.499965	-4.02028e-06
1.0875	0.1875	1.39538	0.499959	0.996697	0.49996	-3.77403e-06
1.1125	0.1875	1.39558	0.499955	0.996844	0.499955	-3.52166e-06
1.1375	0.1875	1.39581	0.499951	0.997004	0.499951	-3.26537e-06
1.1625	0.1875	1.39605	0.499947	0.997177	0.499947	-3.00698e-06
1.1875	0.1875	1.3963	0.499944	0.99736	0.499944	-2.74847e-06
1.2125	0.1875	1.39657	0.499942	0.997551	0.499942	-2.49167e-06
1.2375	0.1875	1.39685	0.49994	0.99775	0.49994	-2.23819e-06
1.2625	0.1875	1.39714	0.499938	0.997954	0.499938	-1.98952e-06
1.2875	0.1875	1.39743	0.499937	0.998161	0.499937	-1.74697e-06
1.3125	0.1875	1.39772	0.499937	0.998371	0.499937	-1.51168e-06
1.3375	0.1875	1.39801	0.499937	0.998581	0.499937	-1.28467e-06
1.3625	0.1875	1.39831	0.499937	0.998791	0.499937	-1.06681e-06
1.3875	0.1875	1.3986	0.499938	0.998998	0.499938	-8.58833e-07
1.4125	0.1875	1.39888	0.499939	0.999202	0.499939	-6.61343e-07
1.4375	0.1875	1.39916	0.49994	0.999402	0.49994	-4.74836e-07
1.4625	0.1875	1.39943	0.499942	0.999595	0.499942	-3.00524e-07
1.4875	0.1875	1.3997	0.499944	0.999782	0.499944	-1.46626e-07
1.5125	0.1875	1.39995	0.499947	0.999962	0.499947	-2.05056e-08
1.5375	0.1875	1.40019	0.499949	1.00013	0.499949	1.40315e-07
1.5625	0.1875	1.40041	0.499952	1.00029	0.499952	2.81412e-07
1.5875	0.1875	1.40063	0.499955	1.00045	0.499955	3.99858e-07
1.6125	0.1875	1.40082	0.499958	1.00059	0.499958	5.04399e-07
1.6375	0.1875	1.40101	0.499961	1.00072	0.499961	5.97437e-07
1.6625	0.1875	1.40117	0.499965	1.00084	0.499965	6.79254e-07
1.6875	0.1875	1.40133	0.499968	1.00095	0.499968	7.50156e-07
1.7125	0.1875	1.40146	0.499972	1.00104	0.499972	8.1051e-07
1.7375	0.1875	1.40158	0.499975	1.00113	0.499975	8.6072e-07
1.7625	0.1875	1.40168	0.499979	1.0012	0.499979	9.01223e-07
1.7875	0.1875	1.40177	0.499982	1.00126	0.499982	9.32483e-07
1.8125	0.1875	1.40184	0.499985	1.00132	0.499985	9.54991e-07
1.8375	0.1875	1.4019	0.499989	1.00136	0.499989	9.69257e-07
1.8625	0.1875	1.40194	0.499992	1.00138	0.499992	9.75805e-07
1.8875	0.1875	1.40196	0.499995	1.0014	0.499995	9.75144e-07
1.9125	0.1875	1.40197	0.499998	1.00141	0.499998	9.64918e-07
1.9375	0.1875	1.40197	0.500001	1.00141	0.500001	7.33535e-07
1.9625	0.1875	1.40196	0.500003	1.0014	0.500003	5.30116e-07
1.9875	0.1875	1.40194	0.500006	1.00139	0.500006	3.26697e-07
0.0125	0.229167	1.40934	0.498408	1.00673	0.498424	5.00709e-05
0.0375	0.229167	1.4108	0.499721	1.00765	0.499705	5.75413e-05
0.0625	0.229167	1.41113	0.499992	1.00794	0.499988	5.68177e-05
0.0875	0.229167	1.41095	0.50005	1.00782	0.500049	5.48641e-05
0.1125	0.229167	1.41063	0.500072	1.00759	0.500072	5.11584e-05
0.1375	0.229167	1.41023	0.50009	1.0073	0.500089	4.68098e-05
0.1625	0.229167	1.40975	0.500105	1.00696	0.500105	4.22247e-05
0.1875	0.229167	1.40921	0.500118	1.00657	0.500118	3.76238e-05
0.2125	0.229167	1.40861	0.500129	1.00615	0.500129	3.31523e-05
0.2375	0.229167	1.40797	0.500139	1.00569	0.500138	2.89016e-05
0.2625	0.229167	1.40729	0.500146	1.00521	0.500146	2.49234e-05
0.2875	0.229167	1.40659	0.500151	1.0047	0.500151	2.12412e-05
0.3125	0.229167	1.40586	0.500155	1.00419	0.500155	1.78609e-05
0.3375	0.229167	1.40513	0.500158	1.00366	0.500158	1.4777e-05
0.3625	0.229167	1.40439	0.500159	1.00313	0.500159	1.19772e-05
0.3875	0.229167	1.40364	0.500158	1.0026	0.500158	9.44722e-06
0.4125	0.229167	1.40291	0.500157	1.00208	0.500157	7.16924e-06
0.4375	0.229167	1.40219	0.500154	1.00156	0.500154	5.12678e-06
0.4625	0.229167	1.40148	0.50015	1.00106	0.50015	3.30317e-06
0.4875	0.229167	1.4008	0.500146	1.00057	0.500146	1.6816e-06
0.5125	0.229167	1.40014	0.50014	1.0001	0.50014	2.48029e-07
0.5375	0.229167	1.39951	0.500134	0.99965	0.500134	-1.01262e-06
0.5625	0.229167	1.39891	0.500127	0.999223	0.500127	-2.1133e-06
0.5875	0.229167	1.39835	0.50012	0.99882	0.50012	-3.06654e-06
0.6125	0.229167	1.39782	0.500112	0.998444	0.500112	-3.8839e-06
0.6375	0.229167	1.39733	0.500103	0.998095	0.500103	-4.5762e-06
0.6625	0.229167	1.39688	0.500094	0.997775	0.500095	-5.15352e-06
0.6875	0.229167	1.39648	0.500085	0.997485	0.500086	-5.62533e-06
0.7125	0.229167	1.39611	0.500076	0.997225	0.500077	-6.00053e-06
0.7375	0.229167	1.39579	0.500067	0.996996	0.500067	-6.28744e-06
0.7625	0.229167	1.39551	0.500058	0.996797	0.500058	-6.49392e-06
0.7875	0.229167	1.39528	0.500049	0.996629	0.500049	-6.62737e-06
0.8125	0.229167	1.39509	0.50004	0.996491	0.50004	-6.69475e-06
0.8375	0.229167	1.39494	0.500031	0.996384	0.500031	-6.70263e-06
0.8625	0.229167	1.39483	0.500022	0.996305	0.500022	-6.65721e-06
0.8875	0.229167	1.39475	0.500013	0.996254	0.500014	-6.56433e-06
0.9125	0.229167	1.39472	0.500005	0.996232	0.500005	-6.43032e-06
0.9375	0.229167	1.39473	0.499998	0.996233	0.499998	-6.25738e-06
0.9625	0.229167	1.39476	0.49999	0.996261	0.49999	-6.05395e-06
0.9875	0.229167	1.39484	0.499983	0.996312	0.499983	-5.8234e-06
1.0125	0.229167	1.39494	0.499977	0.996385	0.499977	-5.56945e-06
1.0375	0.229167	1.39507	0.499971	0.996479	0.499971	-5.29643e-06
1.0625	0.229167	1.39523	0.499965	0.996591	0.499965	-5.00806e-06
1.0875	0.229167	1.39541	0.49996	0.996721	0.49996	-4.7078e-06
1.1125	0.229167	1.39561	0.499955	0.996866	0.499955	-4.39888e-06
1.1375	0.229167	1.39583	0.499951	0.997025	0.499951	-4.08427e-06
1.1625	0.229167	1.39607	0.499948	0.997196	0.499948	-3.76668e-06
1.1875	0.229167	1.39633	0.499945	0.997377	0.499945	-3.4486e-06
1.2125	0.229167	1.39659	0.499942	0.997567	0.499942	-3.1323e-06
1.2375	0.229167	1.39687	0.49994	0.997764	0.49994	-2.81984e-06
1.2625	0.229167	1.39715	0.499939	0.997966	0.499939	-2.51305e-06
1.2875	0.229167	1.39744	0.499938	0.998173	0.499938	-2.21359e-06
1.3125	0.229167	1.39773	0.499937	0.998381	0.499937	-1.92291e-06
1.3375	0.229167	1.39803	0.499937	0.99859	0.499937	-1.64227e-06
1.3625	0.229167	1.39832	0.499937	0.998798	0.499937	-1.37279e-06
1.3875	0.229167	1.39861	0.499938	0.999004	0.499938	-1.11539e-06
1.4125	0.229167	1.39889	0.499939	0.999207	0.499939	-8.70841e-07
1.4375	0.229167	1.39917	0.499941	0.999405	0.499941	-6.39775e-07
1.4625	0.229167	1.39944	0.499942	0.999598	0.499942	-4.22681e-07
1.4875	0.229167	1.3997	0.499945	0.999784	0.499944	-2.1998e-07
1.5125	0.229167	1.39995	0.499947	0.999962	0.499947	-3.22864e-08
1.5375	0.229167	1.40019	0.499949	1.00013	0.499949	1.41706e-07
1.5625	0.229167	1.40041	0.499952	1.00029	0.499952	3.00621e-07
1.5875	0.229167	1.40062	0.499955	1.00044	0.499955	4.44787e-07
1.6125	0.229167	1.40082	0.499958	1.00059	0.499958	5.74489e-07
1.6375	0.229167	1.401	0.499962	1.00072	0.499961	6.89981e-07
1.6625	0.229167	1.40117	0.499965	1.00083	0.499965	7.91584e-07
1.6875	0.229167	1.40132	0.499968	1.00094	0.499968	8.79681e-07
1.7125	0.229167	1.40146	0.499972	1.00104	0.499972	9.54714e-07
1.7375	0.229167	1.40157	0.499975	1.00112	0.499975	1.01718e-06
1.7625	0.229167	1.40168	0.499979	1.0012	0.499979	1.0676e-06
1.7875	0.229167	1.40176	0.499982	1.00126	0.499982	1.10657e-06
1.8125	0.229167	1.40183	0.499986	1.00131	0.499985	1.13467e-06
1.8375	0.229167	1.40189	0.499989	1.00135	0.499989	1.15254e-06
1.8625	0.229167	1.40193	0.499992	1.00138	0.499992	1.16083e-06
1.8875	0.229167	1.40196	0.499995	1.0014	0.499995	1.1602e-06
1.9125	0.229167	1.40197	0.499998	1.0014	0.499998	1.15141e-06
1.9375	0.229167	1.40196	0.500001	1.0014	0.500001	1.13081e-06
1.9625	0.229167	1.40195	0.500003	1.00139	0.500003	1.10451e-06
1.9875	0.229167	1.40193	0.500006	1.00138	0.500006	1.0782e-06
0.0125	0.270833	1.40896	0.498472	1.00646	0.498488	4.90111e-05
0.0375	0.270833	1.41036	0.499732	1.00734	0.499717	5.64287e-05
0.0625	0.270833	1.41068	0.499991	1.00762	0.499987	5.61012e-05
0.0875	0.270833	1.41053	0.500045	1.00752	0.500045	5.38253e-05
0.1125	0.270833	1.41023	0.500067	1.00731	0.500066	5.07296e-05
0.1375	0.270833	1.40986	0.500083	1.00704	0.500083	4.70881e-05
0.1625	0.270833	1.40941	0.500098	1.00672	0.500098	4.3106e-05
0.1875	0.270833	1.4089	0.500111	1.00636	0.500111	3.89591e-05
0.2125	0.270833	1.40834	0.500122	1.00596	0.500122	3.47894e-05
0.2375	0.270833	1.40773	0.500132	1.00552	0.500131	3.07019e-05
0.2625	0.270833	1.40709	0.500139	1.00506	0.500139	2.67698e-05
0.2875	0.270833	1.40641	0.500145	1.00458	0.500145	2.30414e-05
0.3125	0.270833	1.40571	0.50015	1.00408	0.50015	1.95457e-05
0.3375	0.270833	1.405	0.500152	1.00357	0.500152	1.62974e-05
0.3625	0.270833	1.40429	0.500154	1.00306	0.500154	1.33013e-05
0.3875	0.270833	1.40357	0.500154	1.00255	0.500154	1.05558e-05
0.4125	0.270833	1.40285	0.500153	1.00204	0.500153	8.05415e-06
0.4375	0.270833	1.40214	0.500151	1.00153	0.500151	5.78719e-06
0.4625	0.270833	1.40145	0.500147	1.00104	0.500147	3.74402e-06
0.4875	0.270833	1.40078	0.500143	1.00056	0.500143	1.91281e-06
0.5125	0.270833	1.40014	0.500138	1.0001	0.500138	2.81377e-07
0.5375	0.270833	1.39952	0.500132	0.999656	0.500132	-1.16254e-06
0.5625	0.270833	1.39893	0.500125	0.999235	0.500125	-2.43098e-06
0.5875	0.270833	1.39837	0.500118	0.998838	0.500118	-3.53568e-06
0.6125	0.270833	1.39785	0.50011	0.998467	0.50011	-4.48798e-06
0.6375	0.270833	1.39737	0.500102	0.998122	0.500102	-5.29878e-06
0.6625	0.270833	1.39693	0.500093	0.997806	0.500094	-5.97854e-06
0.6875	0.270833	1.39652	0.500085	0.997519	0.500085	-6.53723e-06
0.7125	0.270833	1.39616	0.500076	0.997261	0.500076	-6.98441e-06
0.7375	0.270833	1.39585	0.500067	0.997033	0.500067	-7.32916e-06
0.7625	0.270833	1.39557	0.500058	0.996836	0.500058	-7.58017e-06
0.7875	0.270833	1.39534	0.500048	0.996669	0.500049	-7.74569e-06
0.8125	0.270833	1.39514	0.500039	0.996532	0.50004	-7.83359e-06
0.8375	0.270833	1.39499	0.500031	0.996424	0.500031	-7.85131e-06
0.8625	0.270833	1.39488	0.500022	0.996345	0.500022	-7.80598e-06
0.8875	0.270833	1.39481	0.500014	0.996294	0.500014	-7.70432e-06
0.9125	0.270833	1.39478	0.500005	0.99627	0.500006	-7.55409e-06
0.9375	0.270833	1.39478	0.499998	0.996271	0.499998	-7.35617e-06
0.9625	0.270833	1.39482	0.499991	0.996298	0.499991	-7.12285e-06
0.9875	0.270833	1.39489	0.499984	0.996347	0.499984	-6.85659e-06
1.0125	0.270833	1.39499	0.499977	0.996419	0.499977	-6.56206e-06
1.0375	0.270833	1.39511	0.499971	0.996511	0.499971	-6.24438e-06
1.0625	0.270833	1.39527	0.499965	0.996622	0.499966	-5.90797e-06
1.0875	0.270833	1.39545	0.49996	0.996749	0.499961	-5.55696e-06
1.1125	0.270833	1.39565	0.499956	0.996893	0.499956	-5.19515e-06
1.1375	0.270833	1.39587	0.499952	0.99705	0.499952	-4.82608e-06
1.1625	0.270833	1.39611	0.499948	0.997219	0.499948	-4.45299e-06
1.1875	0.270833	1.39636	0.499945	0.997398	0.499945	-4.07886e-06
1.2125	0.270833	1.39662	0.499943	0.997586	0.499943	-3.70642e-06
1.2375	0.270833	1.39689	0.499941	0.997781	0.499941	-3.33812e-06
1.2625	0.270833	1.39717	0.499939	0.997982	0.499939	-2.97619e-06
1.2875	0.270833	1.39746	0.499938	0.998186	0.499938	-2.6226e-06
1.3125	0.270833	1.39775	0.499938	0.998392	0.499938	-2.27912e-06
1.3375	0.270833	1.39804	0.499938	0.9986	0.499938	-1.94726e-06
1.3625	0.270833	1.39833	0.499938	0.998806	0.499938	-1.62839e-06
1.3875	0.270833	1.39862	0.499939	0.999011	0.499939	-1.32362e-06
1.4125	0.270833	1.3989	0.49994	0.999212	0.49994	-1.0339e-06
1.4375	0.270833	1.39917	0.499941	0.999409	0.499941	-7.59994e-07
1.4625	0.270833	1.39944	0.499943	0.9996	0.499943	-5.02517e-07
1.4875	0.270833	1.3997	0.499945	0.999785	0.499945	-2.61913e-07
1.5125	0.270833	1.39995	0.499947	0.999962	0.499947	-3.84878e-08
1.5375	0.270833	1.40018	0.49995	1.00013	0.49995	1.67611e-07
1.5625	0.270833	1.40041	0.499953	1.00029	0.499952	3.56327e-07
1.5875	0.270833	1.40062	0.499955	1.00044	0.499955	5.27742e-07
1.6125	0.270833	1.40081	0.499959	1.00058	0.499958	6.82039e-07
1.6375	0.270833	1.401	0.499962	1.00071	0.499962	8.19497e-07
1.6625	0.270833	1.40116	0.499965	1.00083	0.499965	9.40486e-07
1.6875	0.270833	1.40131	0.499968	1.00094	0.499968	1.04545e-06
1.7125	0.270833	1.40145	0.499972	1.00103	0.499972	1.1349e-06
1.7375	0.270833	1.40157	0.499975	1.00112	0.499975	1.20942e-06
1.7625	0.270833	1.40167	0.499979	1.00119	0.499979	1.26963e-06
1.7875	0.270833	1.40175	0.499982	1.00125	0.499982	1.31621e-06
1.8125	0.270833	1.40182	0.499986	1.0013	0.499986	1.34987e-06
1.8375	0.270833	1.40188	0.499989	1.00134	0.499989	1.37135e-06
1.8625	0.270833	1.40192	0.499992	1.00137	0.499992	1.38142e-06
1.8875	0.270833	1.40195	0.499995	1.00139	0.499995	1.38085e-06
1.9125	0.270833	1.40196	0.499998	1.0014	0.499998	1.37062e-06
1.9375	0.270833	1.40195	0.500001	1.0014	0.500001	1.35083e-06
1.9625	0.270833	1.40194	0.500003	1.00138	0.500003	1.32341e-06
1.9875	0.270833	1.40192	0.500006	1.00137	0.500006	1.29599e-06
0.0125	0.3125	1.40859	0.498534	1.0062	0.498549	4.70466e-05
0.0375	0.3125	1.40994	0.499742	1.00704	0.499728	5.42415e-05