TITLE = Flow Solution
VARIABLES = X, Y, Rho, Mach, P, u, v
Zone T = Omega I = 80 J = 22
0.0125	0.0625	1.40003	0.000130163	0.999987	0	0.000130161
0.0375	0.0625	1.40009	8.27389e-05	1.00109	0	8.27813e-05
0.0625	0.0625	1.40024	8.05582e-05	1.05783	0	8.28475e-05
0.0875	0.0625	1.41017	9.70602e-06	0.985337	0	9.59979e-06
0.1125	0.0625	1.41136	4.19053e-06	0.991042	0	4.1549e-06
0.1375	0.0625	1.4112	1.81139e-06	1.01585	-0	-1.81843e-06
0.1625	0.0625	1.41061	1.68375e-06	1.01761	-0	-1.69211e-06
0.1875	0.0625	1.40995	1.34756e-06	1.01767	-0	-1.35461e-06
0.2125	0.0625	1.40925	1.04947e-06	1.01748	-0	-1.05513e-06
0.2375	0.0625	1.40851	8.20561e-07	1.01719	-0	-8.25082e-07
0.2625	0.0625	1.40774	6.51368e-07	1.01682	-0	-6.55015e-07
0.2875	0.0625	1.40696	4.92737e-07	1.01647	-0	-4.95547e-07
0.3125	0.0625	1.40617	3.39586e-07	1.0161	-0	-3.41556e-07
0.3375	0.0625	1.40537	2.23795e-07	1.01565	-0	-2.25108e-07
0.3625	0.0625	1.40458	1.25619e-07	1.01519	-0	-1.26363e-07
0.3875	0.0625	1.40379	4.22784e-08	1.01471	-0	-4.25308e-08
0.4125	0.0625	1.40302	2.83269e-08	1.01424	0	2.84972e-08
0.4375	0.0625	1.40226	8.7305e-08	1.01377	0	8.78334e-08
0.4625	0.0625	1.40152	1.36359e-07	1.01331	0	1.37189e-07
0.4875	0.0625	1.40081	1.7651e-07	1.01286	0	1.77591e-07
0.5125	0.0625	1.40013	2.08753e-07	1.01242	0	2.10036e-07
0.5375	0.0625	1.39947	2.33813e-07	1.01199	0	2.35255e-07
0.5625	0.0625	1.39886	2.52495e-07	1.0116	0	2.54058e-07
0.5875	0.0625	1.39828	2.65494e-07	1.01122	0	2.67143e-07
0.6125	0.0625	1.39774	2.73375e-07	1.01086	0	2.75078e-07
0.6375	0.0625	1.39724	2.76703e-07	1.01053	0	2.7843e-07
0.6625	0.0625	1.39678	2.76015e-07	1.01022	0	2.7774e-07
0.6875	0.0625	1.39637	2.71764e-07	1.00994	0	2.73465e-07
0.7125	0.0625	1.396	2.64392e-07	1.00968	0	2.66049e-07
0.7375	0.0625	1.39568	2.54309e-07	1.00946	0	2.55904e-07
0.7625	0.0625	1.3954	2.41892e-07	1.00926	0	2.43409e-07
0.7875	0.0625	1.39516	2.27508e-07	1.00908	0	2.28935e-07
0.8125	0.0625	1.39497	2.11474e-07	1.00894	0	2.128e-07
0.8375	0.0625	1.39482	1.94095e-07	1.00882	0	1.95311e-07
0.8625	0.0625	1.39471	1.7566e-07	1.00873	0	1.76759e-07
0.8875	0.0625	1.39464	1.56461e-07	1.00867	0	1.57439e-07
0.9125	0.0625	1.39461	1.37465e-07	1.00862	0	1.38322e-07
0.9375	0.0625	1.39462	1.16058e-07	1.00848	0	1.16774e-07
0.9625	0.0625	1.39466	9.65338e-08	1.00862	0	9.71342e-08
0.9875	0.0625	1.39474	7.6908e-08	1.00864	0	7.73851e-08
1.0125	0.0625	1.39485	5.86288e-08	1.00869	0	5.89915e-08
1.0375	0.0625	1.39499	4.35866e-08	1.00876	0	4.38556e-08
1.0625	0.0625	1.39515	2.14884e-08	1.00883	0	2.16206e-08
1.0875	0.0625	1.39534	1.59068e-09	1.00893	-0	-1.60043e-09
1.1125	0.0625	1.39554	1.95947e-08	1.00906	-0	-1.97146e-08
1.1375	0.0625	1.39577	3.27374e-08	1.00919	-0	-3.29373e-08
1.1625	0.0625	1.39602	5.21814e-08	1.00934	-0	-5.24992e-08
1.1875	0.0625	1.39628	6.72248e-08	1.0095	-0	-6.76332e-08
1.2125	0.0625	1.39655	8.09019e-08	1.00966	-0	-8.13922e-08
1.2375	0.0625	1.39683	9.20204e-08	1.00983	-0	-9.25766e-08
1.2625	0.0625	1.39712	1.03742e-07	1.01001	-0	-1.04367e-07
1.2875	0.0625	1.39741	1.13892e-07	1.0102	-0	-1.14577e-07
1.3125	0.0625	1.39771	1.23032e-07	1.01038	-0	-1.2377e-07
1.3375	0.0625	1.39801	1.31172e-07	1.01056	-0	-1.31957e-07
1.3625	0.0625	1.3983	1.38534e-07	1.01074	-0	-1.3936e-07
1.3875	0.0625	1.3986	1.44046e-07	1.01093	-0	-1.44904e-07
1.4125	0.0625	1.39888	1.48861e-07	1.01112	-0	-1.49746e-07
1.4375	0.0625	1.39916	1.52633e-07	1.0113	-0	-1.53539e-07
1.4625	0.0625	1.39944	1.55392e-07	1.01148	-0	-1.56312e-07
1.4875	0.0625	1.3997	1.57263e-07	1.01165	-0	-1.58194e-07
1.5125	0.0625	1.39995	1.5805e-07	1.01182	-0	-1.58984e-07
1.5375	0.0625	1.40019	1.58004e-07	1.01198	-0	-1.58936e-07
1.5625	0.0625	1.40042	1.5716e-07	1.01213	-0	-1.58086e-07
1.5875	0.0625	1.40064	1.55552e-07	1.01227	-0	-1.56467e-07
1.6125	0.0625	1.40083	1.53241e-07	1.01239	-0	-1.54142e-07
1.6375	0.0625	1.40102	1.50283e-07	1.01252	-0	-1.51166e-07
1.6625	0.0625	1.40119	1.46757e-07	1.01263	-0	-1.47618e-07
1.6875	0.0625	1.40134	1.4277e-07	1.01274	-0	-1.43608e-07
1.7125	0.0625	1.40148	1.38374e-07	1.01283	-0	-1.39185e-07
1.7375	0.0625	1.40159	1.33825e-07	1.01291	-0	-1.3461e-07
1.7625	0.0625	1.4017	1.30112e-07	1.01299	-0	-1.30874e-07
1.7875	0.0625	1.40178	1.26679e-07	1.01305	-0	-1.27422e-07
1.8125	0.0625	1.40186	1.1934e-07	1.0131	-0	-1.2004e-07
1.8375	0.0625	1.40191	1.11201e-07	1.01315	-0	-1.11853e-07
1.8625	0.0625	1.40195	1.04968e-07	1.01318	-0	-1.05585e-07
1.8875	0.0625	1.40198	9.88476e-08	1.0132	-0	-9.9428e-08
1.9125	0.0625	1.40199	9.30868e-08	1.01322	-0	-9.36339e-08
1.9375	0.0625	1.40198	9.41441e-08	1.01259	-0	-9.46682e-08
1.9625	0.0625	1.40196	7.48692e-08	1.0014	-0	-7.48691e-08
1.9875	0.0625	1.40194	5.53801e-08	0.990201	0	-5.507e-08
0.0125	0.104167	1.40003	0.499999	0.999987	0.49999	-0.00059296
0.0375	0.104167	1.40009	0.499795	1.00112	0.500057	-0.000725473
0.0625	0.104167	1.40024	0.485697	1.05817	0.499581	-0.000720767
0.0875	0.104167	1.41017	0.503968	0.985205	0.498419	-0.000280112
0.1125	0.104167	1.41136	0.504075	0.990939	0.499763	2.36594e-07
0.1375	0.104167	1.4112	0.498072	1.0159	0.50002	2.07759e-05
0.1625	0.104167	1.41061	0.49758	1.01767	0.500065	1.82631e-05
0.1875	0.104167	1.40995	0.497458	1.01774	0.500077	1.5098e-05
0.2125	0.104167	1.40925	0.497387	1.01755	0.500084	1.22564e-05
0.2375	0.104167	1.40851	0.497334	1.01726	0.50009	9.97446e-06
0.2625	0.104167	1.40774	0.497294	1.01689	0.500095	8.13305e-06
0.2875	0.104167	1.40696	0.497245	1.01654	0.500098	6.54641e-06
0.3125	0.104167	1.40617	0.497198	1.01617	0.5001	5.15873e-06
0.3375	0.104167	1.40537	0.497166	1.01572	0.5001	3.98265e-06
0.3625	0.104167	1.40458	0.497138	1.01526	0.5001	2.97069e-06
0.3875	0.104167	1.40379	0.497114	1.01479	0.500098	2.09663e-06
0.4125	0.104167	1.40302	0.49709	1.01431	0.500096	1.34222e-06
0.4375	0.104167	1.40226	0.497067	1.01384	0.500093	6.92077e-07
0.4625	0.104167	1.40152	0.497045	1.01339	0.500089	1.33849e-07
0.4875	0.104167	1.40081	0.497024	1.01294	0.500084	-3.43191e-07
0.5125	0.104167	1.40013	0.497005	1.0125	0.500079	-7.47917e-07
0.5375	0.104167	1.39947	0.496989	1.01207	0.500072	-1.08802e-06
0.5625	0.104167	1.39886	0.49697	1.01167	0.500066	-1.37004e-06
0.5875	0.104167	1.39828	0.496954	1.01129	0.500059	-1.59996e-06
0.6125	0.104167	1.39774	0.496938	1.01093	0.500052	-1.78276e-06
0.6375	0.104167	1.39724	0.496924	1.0106	0.500044	-1.92351e-06
0.6625	0.104167	1.39678	0.49691	1.01029	0.500036	-2.0263e-06
0.6875	0.104167	1.39637	0.496898	1.01001	0.500028	-2.09524e-06
0.7125	0.104167	1.396	0.496887	1.00976	0.50002	-2.1338e-06
0.7375	0.104167	1.39568	0.496877	1.00953	0.500011	-2.14521e-06
0.7625	0.104167	1.3954	0.496868	1.00933	0.500003	-2.1327e-06
0.7875	0.104167	1.39516	0.49686	1.00916	0.499995	-2.09903e-06
0.8125	0.104167	1.39497	0.496853	1.00902	0.499987	-2.04688e-06
0.8375	0.104167	1.39482	0.496847	1.0089	0.499979	-1.97865e-06
0.8625	0.104167	1.39471	0.496842	1.00881	0.499971	-1.89664e-06
0.8875	0.104167	1.39464	0.496838	1.00875	0.499964	-1.80313e-06
0.9125	0.104167	1.39461	0.496839	1.00869	0.499956	-1.70348e-06
0.9375	0.104167	1.39462	0.496868	1.00855	0.499949	-1.58615e-06
0.9625	0.104167	1.39466	0.496834	1.00869	0.499943	-1.47213e-06
0.9875	0.104167	1.39474	0.496836	1.00872	0.499937	-1.35267e-06
1.0125	0.104167	1.39485	0.496839	1.00876	0.499931	-1.23552e-06
1.0375	0.104167	1.39499	0.496841	1.00883	0.499926	-1.12645e-06
1.0625	0.104167	1.39515	0.496847	1.0089	0.499921	-9.94593e-07
1.0875	0.104167	1.39534	0.496851	1.00901	0.499916	-8.4032e-07
1.1125	0.104167	1.39554	0.496854	1.00913	0.499912	-7.08299e-07
1.1375	0.104167	1.39577	0.496857	1.00926	0.499909	-5.89284e-07
1.1625	0.104167	1.39602	0.496861	1.00941	0.499906	-4.66992e-07
1.1875	0.104167	1.39628	0.496866	1.00957	0.499903	-3.52401e-07
1.2125	0.104167	1.39655	0.496872	1.00974	0.499901	-2.41415e-07
1.2375	0.104167	1.39683	0.496878	1.00991	0.499899	-1.39989e-07
1.2625	0.104167	1.39712	0.496884	1.01009	0.499898	-3.53088e-08
1.2875	0.104167	1.39741	0.496891	1.01027	0.499897	5.5948e-08
1.3125	0.104167	1.39771	0.496898	1.01045	0.499897	1.44686e-07
1.3375	0.104167	1.39801	0.496906	1.01063	0.499897	2.27702e-07
1.3625	0.104167	1.3983	0.496914	1.01081	0.499897	3.04313e-07
1.3875	0.104167	1.3986	0.49692	1.011	0.499898	3.73974e-07
1.4125	0.104167	1.39888	0.496927	1.01119	0.499899	4.37459e-07
1.4375	0.104167	1.39916	0.496933	1.01137	0.4999	4.94438e-07
1.4625	0.104167	1.39944	0.496939	1.01155	0.499902	5.44934e-07
1.4875	0.104167	1.3997	0.496947	1.01172	0.499904	5.88966e-07
1.5125	0.104167	1.39995	0.496951	1.01189	0.499906	6.26869e-07
1.5375	0.104167	1.40019	0.496958	1.01205	0.499908	6.58523e-07
1.5625	0.104167	1.40042	0.496964	1.0122	0.49991	6.84423e-07
1.5875	0.104167	1.40064	0.49697	1.01234	0.499913	7.04709e-07
1.6125	0.104167	1.40083	0.496977	1.01246	0.499916	7.19631e-07
1.6375	0.104167	1.40102	0.496981	1.01259	0.499919	7.29434e-07
1.6625	0.104167	1.40119	0.496986	1.01271	0.499922	7.34583e-07
1.6875	0.104167	1.40134	0.496991	1.01281	0.499925	7.35561e-07
1.7125	0.104167	1.40148	0.496995	1.0129	0.499928	7.326e-07
1.7375	0.104167	1.40159	0.496999	1.01299	0.499931	7.26906e-07
1.7625	0.104167	1.4017	0.497002	1.01306	0.499934	7.22827e-07
1.7875	0.104167	1.40178	0.497005	1.01312	0.499937	7.21361e-07
1.8125	0.104167	1.40186	0.497008	1.01318	0.49994	6.90132e-07
1.8375	0.104167	1.40191	0.49701	1.01322	0.499943	6.65203e-07
1.8625	0.104167	1.40195	0.497011	1.01325	0.499946	6.42691e-07
1.8875	0.104167	1.40198	0.497013	1.01328	0.499948	6.1917e-07
1.9125	0.104167	1.40199	0.497013	1.01329	0.499951	5.95818e-07
1.9375	0.104167	1.40198	0.497172	1.01266	0.499956	6.06132e-07
1.9625	0.104167	1.40196	0.500002	1.0014	0.500001	3.41074e-07
1.9875	0.104167	1.40194	0.502874	0.990158	0.500047	1.38965e-07
0.0125	0.145833	1.41033	0.498454	1.00742	0.498463	-0.000553297
0.0375	0.145833	1.41178	0.499733	1.00835	0.499715	-0.00062663
0.0625	0.145833	1.412	0.499966	1.00855	0.49996	-0.000624352
0.0875	0.145833	1.41177	0.500012	1.00839	0.500008	-5.87689e-05
0.1125	0.145833	1.41141	0.500029	1.00815	0.500028	3.02758e-05
0.1375	0.145833	1.41093	0.500047	1.0078	0.500046	3.49352e-05
0.1625	0.145833	1.41036	0.50006	1.0074	0.50006	3.05562e-05
0.1875	0.145833	1.40974	0.500071	1.00696	0.50007	2.61856e-05
0.2125	0.145833	1.40907	0.500079	1.00648	0.500079	2.23123e-05
0.2375	0.145833	1.40836	0.500086	1.00597	0.500086	1.89228e-05
0.2625	0.145833	1.40762	0.500091	1.00544	0.500091	1.59626e-05
0.2875	0.145833	1.40686	0.500095	1.0049	0.500095	1.33703e-05
0.3125	0.145833	1.40609	0.500097	1.00435	0.500097	1.10964e-05
0.3375	0.145833	1.40531	0.500098	1.00379	0.500098	9.10206e-06
0.3625	0.145833	1.40453	0.500098	1.00323	0.500098	7.34926e-06
0.3875	0.145833	1.40375	0.500097	1.00268	0.500097	5.80729e-06
0.4125	0.145833	1.40298	0.500095	1.00213	0.500095	4.45087e-06
0.4375	0.145833	1.40224	0.500092	1.0016	0.500092	3.25824e-06
0.4625	0.145833	1.40151	0.500088	1.00108	0.500088	2.21131e-06
0.4875	0.145833	1.4008	0.500083	1.00057	0.500083	1.29399e-06
0.5125	0.145833	1.40012	0.500078	1.00009	0.500078	4.92957e-07
0.5375	0.145833	1.39948	0.500072	0.999628	0.500072	-2.03416e-07
0.5625	0.145833	1.39887	0.500066	0.999191	0.500066	-8.04884e-07
0.5875	0.145833	1.39829	0.500059	0.99878	0.500059	-1.32044e-06
0.6125	0.145833	1.39775	0.500051	0.998397	0.500052	-1.7583e-06
0.6375	0.145833	1.39726	0.500044	0.998043	0.500044	-2.12545e-06
0.6625	0.145833	1.39681	0.500036	0.997719	0.500036	-2.42842e-06
0.6875	0.145833	1.39639	0.500028	0.997425	0.500028	-2.67316e-06
0.7125	0.145833	1.39603	0.50002	0.997163	0.50002	-2.86508e-06
0.7375	0.145833	1.3957	0.500012	0.996932	0.500012	-3.00914e-06
0.7625	0.145833	1.39542	0.500003	0.996732	0.500004	-3.10994e-06
0.7875	0.145833	1.39519	0.499995	0.996564	0.499995	-3.17171e-06
0.8125	0.145833	1.395	0.499987	0.996427	0.499987	-3.19842e-06
0.8375	0.145833	1.39485	0.499979	0.99632	0.499979	-3.19374e-06
0.8625	0.145833	1.39474	0.499972	0.996242	0.499972	-3.16111e-06
0.8875	0.145833	1.39467	0.499964	0.996193	0.499964	-3.10374e-06
0.9125	0.145833	1.39464	0.499957	0.996172	0.499957	-3.02549e-06
0.9375	0.145833	1.39465	0.49995	0.996176	0.49995	-2.92581e-06
0.9625	0.145833	1.39469	0.499944	0.996207	0.499944	-2.81195e-06
0.9875	0.145833	1.39476	0.499938	0.996261	0.499938	-2.68374e-06
1.0125	0.145833	1.39487	0.499932	0.996337	0.499932	-2.54387e-06
1.0375	0.145833	1.39501	0.499927	0.996434	0.499927	-2.39476e-06
1.0625	0.145833	1.39517	0.499922	0.996549	0.499922	-2.23958e-06
1.0875	0.145833	1.39535	0.499917	0.996682	0.499917	-2.08081e-06
1.1125	0.145833	1.39556	0.499913	0.99683	0.499913	-1.91788e-06
1.1375	0.145833	1.39579	0.49991	0.996992	0.49991	-1.75007e-06
1.1625	0.145833	1.39603	0.499907	0.997167	0.499907	-1.57607e-06
1.1875	0.145833	1.39629	0.499904	0.997351	0.499904	-1.40435e-06
1.2125	0.145833	1.39656	0.499902	0.997544	0.499902	-1.23552e-06
1.2375	0.145833	1.39684	0.4999	0.997744	0.4999	-1.06425e-06
1.2625	0.145833	1.39713	0.499899	0.99795	0.499899	-9.04835e-07
1.2875	0.145833	1.39742	0.499898	0.998158	0.499898	-7.42961e-07
1.3125	0.145833	1.39772	0.499898	0.998369	0.499898	-5.89239e-07
1.3375	0.145833	1.39801	0.499898	0.998581	0.499898	-4.41065e-07
1.3625	0.145833	1.39831	0.499898	0.998791	0.499898	-2.99328e-07
1.3875	0.145833	1.3986	0.499899	0.999	0.499899	-1.6383e-07
1.4125	0.145833	1.39889	0.4999	0.999205	0.4999	-3.5391e-08
1.4375	0.145833	1.39917	0.499901	0.999405	0.499901	8.57493e-08
1.4625	0.145833	1.39944	0.499903	0.999599	0.499903	1.99369e-07
1.4875	0.145833	1.3997	0.499905	0.999787	0.499905	3.05302e-07
1.5125	0.145833	1.39995	0.499907	0.999967	0.499907	4.09836e-07
1.5375	0.145833	1.40019	0.499909	1.00014	0.499909	4.93795e-07
1.5625	0.145833	1.40042	0.499911	1.0003	0.499911	5.76135e-07
1.5875	0.145833	1.40063	0.499914	1.00045	0.499914	6.50807e-07
1.6125	0.145833	1.40083	0.499917	1.00059	0.499917	7.17817e-07
1.6375	0.145833	1.40102	0.49992	1.00073	0.49992	7.77287e-07
1.6625	0.145833	1.40118	0.499923	1.00085	0.499922	8.29443e-07
1.6875	0.145833	1.40134	0.499926	1.00095	0.499925	8.74396e-07
1.7125	0.145833	1.40147	0.499929	1.00105	0.499928	9.12583e-07
1.7375	0.145833	1.40159	0.499932	1.00114	0.499932	9.44195e-07
1.7625	0.145833	1.40169	0.499935	1.00121	0.499935	9.69574e-07
1.7875	0.145833	1.40178	0.499938	1.00127	0.499938	9.89163e-07
1.8125	0.145833	1.40185	0.499941	1.00132	0.499941	1.00267e-06
1.8375	0.145833	1.40191	0.499944	1.00136	0.499943	1.01084e-06
1.8625	0.145833	1.40195	0.499946	1.00139	0.499946	1.01419e-06
1.8875	0.145833	1.40197	0.499949	1.00141	0.499949	1.01292e-06
1.9125	0.145833	1.40198	0.499952	1.00141	0.499952	1.00634e-06
1.9375	0.145833	1.40197	0.499956	1.00141	0.499956	8.95991e-07
1.9625	0.145833	1.40195	0.500001	1.00139	0.5	4.54168e-07
1.9875	0.145833	1.40193	0.500045	1.00138	0.500044	1.23457e-08
0.0125	0.1875	1.40996	0.49851	1.00716	0.49852	3.11505e-05
0.0375	0.1875	1.41137	0.499778	1.00805	0.499762	3.53641e-05
0.0625	0.1875	1.4116	0.500005	1.00826	0.5	3.40936e-05
0.0875	0.1875	1.41138	0.500049	1.00813	0.500049	4.38521e-05
0.1125	0.1875	1.41103	0.500069	1.00787	0.500069	4.33796e-05
0.1375	0.1875	1.41058	0.500085	1.00756	0.500085	3.90531e-05
0.1625	0.1875	1.41006	0.500099	1.00719	0.500098	3.45107e-05
0.1875	0.1875	1.40948	0.50011	1.00677	0.500109	3.0174e-05
0.2125	0.1875	1.40884	0.500119	1.00632	0.500119	2.61454e-05
0.2375	0.1875	1.40817	0.500127	1.00583	0.500126	2.24612e-05
0.2625	0.1875	1.40746	0.500132	1.00533	0.500132	1.91243e-05
0.2875	0.1875	1.40673	0.500137	1.0048	0.500137	1.61199e-05
0.3125	0.1875	1.40598	0.50014	1.00427	0.500139	1.3425e-05
0.3375	0.1875	1.40522	0.500141	1.00372	0.500141	1.1014e-05
0.3625	0.1875	1.40445	0.500141	1.00318	0.500141	8.86148e-06
0.3875	0.1875	1.40369	0.500141	1.00264	0.500141	6.94317e-06
0.4125	0.1875	1.40294	0.500139	1.0021	0.500139	5.23694e-06
0.4375	0.1875	1.40221	0.500136	1.00158	0.500136	3.7227e-06
0.4625	0.1875	1.40149	0.500133	1.00106	0.500133	2.38271e-06
0.4875	0.1875	1.40079	0.500128	1.00057	0.500129	1.20086e-06
0.5125	0.1875	1.40012	0.500123	1.00009	0.500123	1.62822e-07
0.5375	0.1875	1.39948	0.500118	0.999632	0.500118	-7.44163e-07
0.5625	0.1875	1.39888	0.500111	0.9992	0.500112	-1.5317e-06
0.5875	0.1875	1.39831	0.500105	0.998793	0.500105	-2.21009e-06
0.6125	0.1875	1.39778	0.500098	0.998413	0.500098	-2.78881e-06
0.6375	0.1875	1.39728	0.50009	0.998061	0.50009	-3.27653e-06
0.6625	0.1875	1.39683	0.500082	0.997739	0.500083	-3.68115e-06
0.6875	0.1875	1.39643	0.500075	0.997448	0.500075	-4.00994e-06
0.7125	0.1875	1.39606	0.500067	0.997187	0.500067	-4.26967e-06
0.7375	0.1875	1.39574	0.500058	0.996957	0.500059	-4.46656e-06
0.7625	0.1875	1.39546	0.50005	0.996758	0.50005	-4.60645e-06
0.7875	0.1875	1.39523	0.500042	0.99659	0.500042	-4.69477e-06
0.8125	0.1875	1.39503	0.500034	0.996453	0.500034	-4.73659e-06
0.8375	0.1875	1.39488	0.500026	0.996346	0.500027	-4.73668e-06
0.8625	0.1875	1.39477	0.500019	0.996268	0.500019	-4.69949e-06
0.8875	0.1875	1.39471	0.500011	0.996219	0.500012	-4.6292e-06
0.9125	0.1875	1.39468	0.500004	0.996198	0.500004	-4.53085e-06
0.9375	0.1875	1.39468	0.499997	0.996201	0.499998	-4.40382e-06
0.9625	0.1875	1.39472	0.499991	0.996231	0.499991	-4.25754e-06
0.9875	0.1875	1.3948	0.499985	0.996284	0.499985	-4.09187e-06
1.0125	0.1875	1.3949	0.499979	0.996359	0.499979	-3.91019e-06
1.0375	0.1875	1.39504	0.499974	0.996454	0.499974	-3.71549e-06
1.0625	0.1875	1.3952	0.499969	0.996569	0.499969	-3.51038e-06
1.0875	0.1875	1.39538	0.499965	0.9967	0.499965	-3.29728e-06
1.1125	0.1875	1.39559	0.499961	0.996848	0.499961	-3.07844e-06
1.1375	0.1875	1.39581	0.499957	0.997008	0.499957	-2.85593e-06
1.1625	0.1875	1.39605	0.499954	0.997181	0.499954	-2.63152e-06
1.1875	0.1875	1.39631	0.499952	0.997365	0.499952	-2.40707e-06
1.2125	0.1875	1.39658	0.499949	0.997557	0.49995	-2.18401e-06
1.2375	0.1875	1.39686	0.499948	0.997755	0.499948	-1.96378e-06
1.2625	0.1875	1.39714	0.499946	0.997959	0.499947	-1.74807e-06
1.2875	0.1875	1.39743	0.499946	0.998167	0.499946	-1.53735e-06
1.3125	0.1875	1.39773	0.499945	0.998377	0.499945	-1.33306e-06
1.3375	0.1875	1.39802	0.499945	0.998587	0.499945	-1.13622e-06
1.3625	0.1875	1.39832	0.499945	0.998797	0.499945	-9.4737e-07
1.3875	0.1875	1.39861	0.499946	0.999004	0.499946	-7.66912e-07
1.4125	0.1875	1.39889	0.499947	0.999208	0.499947	-5.95774e-07
1.4375	0.1875	1.39917	0.499948	0.999407	0.499948	-4.34189e-07
1.4625	0.1875	1.39944	0.49995	0.999601	0.49995	-2.82468e-07
1.4875	0.1875	1.3997	0.499952	0.999788	0.499952	-1.40847e-07
1.5125	0.1875	1.39995	0.499954	0.999967	0.499954	-1.58728e-08
1.5375	0.1875	1.40019	0.499956	1.00014	0.499956	1.11496e-07
1.5625	0.1875	1.40042	0.499958	1.0003	0.499958	2.22366e-07
1.5875	0.1875	1.40063	0.499961	1.00045	0.499961	3.22877e-07
1.6125	0.1875	1.40083	0.499964	1.00059	0.499964	4.13258e-07
1.6375	0.1875	1.40101	0.499967	1.00072	0.499967	4.93714e-07
1.6625	0.1875	1.40118	0.499969	1.00084	0.499969	5.64439e-07
1.6875	0.1875	1.40133	0.499972	1.00095	0.499972	6.25607e-07
1.7125	0.1875	1.40147	0.499975	1.00105	0.499975	6.77725e-07
1.7375	0.1875	1.40159	0.499979	1.00113	0.499978	7.21061e-07
1.7625	0.1875	1.40169	0.499982	1.00121	0.499981	7.55986e-07
1.7875	0.1875	1.40177	0.499985	1.00127	0.499984	7.82908e-07
1.8125	0.1875	1.40184	0.499987	1.00132	0.499987	8.02247e-07
1.8375	0.1875	1.4019	0.49999	1.00136	0.49999	8.14445e-07
1.8625	0.1875	1.40194	0.499993	1.00138	0.499993	8.19962e-07
1.8875	0.1875	1.40196	0.499996	1.0014	0.499996	8.19256e-07
1.9125	0.1875	1.40197	0.499999	1.00141	0.499999	8.12038e-07
1.9375	0.1875	1.40197	0.500001	1.00141	0.500001	7.03387e-07
1.9625	0.1875	1.40196	0.500003	1.0014	0.500003	6.2512e-07
1.9875	0.1875	1.40194	0.500005	1.00139	0.500005	5.46854e-07
0.0125	0.229167	1.40957	0.498569	1.00688	0.498581	4.46957e-05
0.0375	0.229167	1.41092	0.499785	1.00775	0.499772	5.04193e-05
0.0625	0.229167	1.41115	0.500002	1.00795	0.499999	4.95284e-05
0.0875	0.229167	1.41095	0.500045	1.00782	0.500044	4.75746e-05
0.1125	0.229167	1.41063	0.500063	1.00759	0.500063	4.42999e-05
0.1375	0.229167	1.41022	0.500078	1.0073	0.500078	4.05154e-05
0.1625	0.229167	1.40974	0.500091	1.00695	0.500091	3.65338e-05
0.1875	0.229167	1.40919	0.500103	1.00656	0.500103	3.25423e-05
0.2125	0.229167	1.40859	0.500112	1.00614	0.500112	2.86657e-05
0.2375	0.229167	1.40795	0.50012	1.00568	0.50012	2.49825e-05
0.2625	0.229167	1.40727	0.500127	1.00519	0.500127	2.15366e-05
0.2875	0.229167	1.40657	0.500131	1.00469	0.500131	1.83481e-05
0.3125	0.229167	1.40584	0.500135	1.00417	0.500135	1.54217e-05
0.3375	0.229167	1.40511	0.500137	1.00365	0.500137	1.27523e-05
0.3625	0.229167	1.40436	0.500138	1.00312	0.500138	1.03296e-05
0.3875	0.229167	1.40362	0.500137	1.00259	0.500137	8.14036e-06
0.4125	0.229167	1.40289	0.500136	1.00206	0.500136	6.16962e-06
0.4375	0.229167	1.40217	0.500134	1.00155	0.500134	4.40289e-06
0.4625	0.229167	1.40146	0.50013	1.00105	0.50013	2.82541e-06
0.4875	0.229167	1.40078	0.500126	1.00056	0.500126	1.42337e-06
0.5125	0.229167	1.40012	0.500121	1.00009	0.500122	1.83673e-07
0.5375	0.229167	1.39949	0.500116	0.999637	0.500116	-9.061e-07
0.5625	0.229167	1.39889	0.50011	0.99921	0.50011	-1.85745e-06
0.5875	0.229167	1.39833	0.500104	0.998808	0.500104	-2.68113e-06
0.6125	0.229167	1.3978	0.500097	0.998433	0.500097	-3.38718e-06
0.6375	0.229167	1.39732	0.500089	0.998085	0.500089	-3.98496e-06
0.6625	0.229167	1.39687	0.500082	0.997766	0.500082	-4.48323e-06
0.6875	0.229167	1.39647	0.500074	0.997476	0.500074	-4.89018e-06
0.7125	0.229167	1.3961	0.500066	0.997217	0.500066	-5.21351e-06
0.7375	0.229167	1.39578	0.500058	0.996989	0.500058	-5.46044e-06
0.7625	0.229167	1.39551	0.50005	0.996791	0.50005	-5.63778e-06
0.7875	0.229167	1.39527	0.500042	0.996624	0.500042	-5.75193e-06
0.8125	0.229167	1.39508	0.500034	0.996487	0.500034	-5.80893e-06
0.8375	0.229167	1.39493	0.500026	0.99638	0.500027	-5.81446e-06
0.8625	0.229167	1.39482	0.500019	0.996302	0.500019	-5.77389e-06
0.8875	0.229167	1.39475	0.500011	0.996252	0.500012	-5.69229e-06
0.9125	0.229167	1.39472	0.500004	0.99623	0.500005	-5.57537e-06
0.9375	0.229167	1.39473	0.499998	0.996233	0.499998	-5.42396e-06
0.9625	0.229167	1.39477	0.499991	0.996261	0.499991	-5.24725e-06
0.9875	0.229167	1.39484	0.499985	0.996313	0.499985	-5.0466e-06
1.0125	0.229167	1.39494	0.49998	0.996387	0.49998	-4.82582e-06
1.0375	0.229167	1.39507	0.499974	0.996481	0.499974	-4.58859e-06
1.0625	0.229167	1.39523	0.499969	0.996594	0.49997	-4.33813e-06
1.0875	0.229167	1.39541	0.499965	0.996724	0.499965	-4.07744e-06
1.1125	0.229167	1.39562	0.499961	0.99687	0.499961	-3.80931e-06
1.1375	0.229167	1.39584	0.499958	0.997029	0.499958	-3.5363e-06
1.1625	0.229167	1.39608	0.499955	0.9972	0.499955	-3.26076e-06
1.1875	0.229167	1.39633	0.499952	0.997382	0.499952	-2.98486e-06
1.2125	0.229167	1.3966	0.49995	0.997572	0.49995	-2.71055e-06
1.2375	0.229167	1.39688	0.499948	0.99777	0.499948	-2.4396e-06
1.2625	0.229167	1.39716	0.499947	0.997972	0.499947	-2.17363e-06
1.2875	0.229167	1.39745	0.499946	0.998178	0.499946	-1.91404e-06
1.3125	0.229167	1.39774	0.499946	0.998387	0.499946	-1.6621e-06
1.3375	0.229167	1.39803	0.499945	0.998595	0.499945	-1.4189e-06
1.3625	0.229167	1.39833	0.499946	0.998804	0.499946	-1.18541e-06
1.3875	0.229167	1.39861	0.499946	0.99901	0.499946	-9.62403e-07
1.4125	0.229167	1.3989	0.499947	0.999212	0.499947	-7.5057e-07
1.4375	0.229167	1.39918	0.499949	0.999411	0.499949	-5.50446e-07
1.4625	0.229167	1.39944	0.49995	0.999603	0.49995	-3.62449e-07
1.4875	0.229167	1.3997	0.499952	0.999789	0.499952	-1.86889e-07
1.5125	0.229167	1.39995	0.499954	0.999967	0.499954	-2.40327e-08
1.5375	0.229167	1.40019	0.499956	1.00014	0.499956	1.26207e-07
1.5625	0.229167	1.40042	0.499959	1.0003	0.499959	2.63612e-07
1.5875	0.229167	1.40063	0.499961	1.00045	0.499961	3.88336e-07
1.6125	0.229167	1.40083	0.499964	1.00059	0.499964	5.00525e-07
1.6375	0.229167	1.40101	0.499967	1.00072	0.499967	6.00394e-07
1.6625	0.229167	1.40117	0.49997	1.00084	0.49997	6.8822e-07
1.6875	0.229167	1.40132	0.499973	1.00095	0.499973	7.6444e-07
1.7125	0.229167	1.40146	0.499976	1.00104	0.499976	8.2925e-07
1.7375	0.229167	1.40158	0.499979	1.00113	0.499979	8.83159e-07
1.7625	0.229167	1.40168	0.499982	1.0012	0.499982	9.2664e-07
1.7875	0.229167	1.40177	0.499985	1.00126	0.499985	9.6019e-07
1.8125	0.229167	1.40184	0.499988	1.00131	0.499987	9.84334e-07
1.8375	0.229167	1.40189	0.49999	1.00135	0.49999	9.99616e-07
1.8625	0.229167	1.40193	0.499993	1.00138	0.499993	1.0066e-06
1.8875	0.229167	1.40196	0.499996	1.0014	0.499996	1.00586e-06
1.9125	0.229167	1.40197	0.499999	1.0014	0.499999	9.98032e-07
1.9375	0.229167	1.40196	0.500001	1.0014	0.500001	9.82115e-07
1.9625	0.229167	1.40195	0.500003	1.00139	0.500003	9.60986e-07
1.9875	0.229167	1.40193	0.500005	1.00138	0.500005	9.39857e-07
0.0125	0.270833	1.40918	0.498627	1.0066	0.498639	4.3513e-05
0.0375	0.270833	1.41048	0.499793	1.00743	0.499781	4.91921e-05
0.0625	0.270833	1.4107	0.5	1.00764	0.499998	4.86579e-05
0.0875	0.270833	1.41052	0.500041	1.00751	0.50004	4.66392e-05
0.1125	0.270833	1.41022	0.500058	1.0073	0.500058	4.39374e-05
0.1375	0.270833	1.40985	0.500072	1.00703	0.500072	4.0768e-05
0.1625	0.270833	1.4094	0.500085	1.00671	0.500085	3.73073e-05
0.1875	0.270833	1.40889	0.500097	1.00635	0.500096	3.37073e-05
0.2125	0.270833	1.40833	0.500106	1.00595	0.500106	3.00901e-05
0.2375	0.270833	1.40772	0.500114	1.00551	0.500114	2.6546e-05
0.2625	0.270833	1.40707	0.500121	1.00505	0.500121	2.31383e-05
0.2875	0.270833	1.40639	0.500126	1.00457	0.500126	1.99082e-05
0.3125	0.270833	1.4057	0.50013	1.00407	0.50013	1.68805e-05
0.3375	0.270833	1.40498	0.500132	1.00356	0.500132	1.40679e-05
0.3625	0.270833	1.40427	0.500134	1.00305	0.500133	1.14741e-05
0.3875	0.270833	1.40355	0.500134	1.00253	0.500134	9.09774e-06
0.4125	0.270833	1.40283	0.500133	1.00202	0.500133	6.9328e-06
0.4375	0.270833	1.40212	0.500131	1.00152	0.500131	4.97129e-06
0.4625	0.270833	1.40144	0.500128	1.00103	0.500128	3.20371e-06
0.4875	0.270833	1.40076	0.500124	1.00055	0.500124	1.61977e-06
0.5125	0.270833	1.40012	0.500119	1.00009	0.500119	2.08882e-07
0.5375	0.270833	1.3995	0.500114	0.999643	0.500114	-1.03958e-06
0.5625	0.270833	1.39891	0.500108	0.999223	0.500109	-2.13608e-06
0.5875	0.270833	1.39836	0.500102	0.998826	0.500102	-3.09078e-06
0.6125	0.270833	1.39784	0.500095	0.998456	0.500096	-3.91352e-06
0.6375	0.270833	1.39736	0.500088	0.998112	0.500088	-4.61374e-06
0.6625	0.270833	1.39691	0.500081	0.997796	0.500081	-5.20051e-06
0.6875	0.270833	1.39651	0.500073	0.99751	0.500073	-5.68249e-06
0.7125	0.270833	1.39615	0.500065	0.997253	0.500066	-6.06794e-06
0.7375	0.270833	1.39584	0.500058	0.997026	0.500058	-6.36474e-06
0.7625	0.270833	1.39556	0.50005	0.99683	0.50005	-6.58041e-06
0.7875	0.270833	1.39533	0.500042	0.996664	0.500042	-6.72211e-06
0.8125	0.270833	1.39514	0.500034	0.996527	0.500034	-6.79665e-06
0.8375	0.270833	1.39499	0.500026	0.99642	0.500027	-6.81049e-06
0.8625	0.270833	1.39488	0.500019	0.996342	0.500019	-6.76979e-06
0.8875	0.270833	1.39481	0.500012	0.996292	0.500012	-6.68038e-06
0.9125	0.270833	1.39478	0.500005	0.996269	0.500005	-6.54883e-06
0.9375	0.270833	1.39478	0.499998	0.99627	0.499998	-6.37637e-06
0.9625	0.270833	1.39482	0.499992	0.996298	0.499992	-6.17324e-06
0.9875	0.270833	1.39489	0.499986	0.996348	0.499986	-5.94147e-06
1.0125	0.270833	1.39499	0.49998	0.996421	0.49998	-5.68538e-06
1.0375	0.270833	1.39512	0.499975	0.996513	0.499975	-5.40932e-06
1.0625	0.270833	1.39527	0.49997	0.996624	0.49997	-5.11713e-06
1.0875	0.270833	1.39545	0.499966	0.996753	0.499966	-4.81235e-06
1.1125	0.270833	1.39565	0.499962	0.996896	0.499962	-4.49829e-06
1.1375	0.270833	1.39587	0.499958	0.997054	0.499958	-4.17801e-06
1.1625	0.270833	1.39611	0.499955	0.997223	0.499955	-3.85431e-06
1.1875	0.270833	1.39636	0.499953	0.997403	0.499953	-3.52979e-06
1.2125	0.270833	1.39663	0.49995	0.997591	0.49995	-3.20678e-06
1.2375	0.270833	1.3969	0.499949	0.997787	0.499949	-2.88743e-06
1.2625	0.270833	1.39718	0.499947	0.997987	0.499947	-2.57364e-06
1.2875	0.270833	1.39747	0.499946	0.998192	0.499947	-2.26713e-06
1.3125	0.270833	1.39776	0.499946	0.998398	0.499946	-1.96942e-06
1.3375	0.270833	1.39805	0.499946	0.998605	0.499946	-1.68184e-06
1.3625	0.270833	1.39834	0.499946	0.998812	0.499946	-1.40555e-06
1.3875	0.270833	1.39862	0.499947	0.999017	0.499947	-1.14151e-06
1.4125	0.270833	1.39891	0.499948	0.999218	0.499948	-8.90539e-07
1.4375	0.270833	1.39918	0.499949	0.999414	0.499949	-6.53313e-07
1.4625	0.270833	1.39945	0.49995	0.999606	0.49995	-4.30346e-07
1.4875	0.270833	1.39971	0.499952	0.99979	0.499952	-2.22022e-07
1.5125	0.270833	1.39995	0.499954	0.999967	0.499954	-2.86012e-08
1.5375	0.270833	1.40019	0.499956	1.00014	0.499956	1.49779e-07
1.5625	0.270833	1.40041	0.499959	1.0003	0.499959	3.13085e-07
1.5875	0.270833	1.40062	0.499961	1.00045	0.499961	4.61388e-07
1.6125	0.270833	1.40082	0.499964	1.00059	0.499964	5.94848e-07
1.6375	0.270833	1.401	0.499967	1.00072	0.499967	7.13709e-07
1.6625	0.270833	1.40117	0.49997	1.00083	0.49997	8.18292e-07
1.6875	0.270833	1.40132	0.499973	1.00094	0.499973	9.08988e-07
1.7125	0.270833	1.40145	0.499976	1.00104	0.499976	9.8624e-07
1.7375	0.270833	1.40157	0.499979	1.00112	0.499979	1.05055e-06
1.7625	0.270833	1.40167	0.499982	1.00119	0.499982	1.10247e-06
1.7875	0.270833	1.40176	0.499985	1.00125	0.499985	1.14257e-06
1.8125	0.270833	1.40183	0.499988	1.0013	0.499987	1.17149e-06
1.8375	0.270833	1.40188	0.49999	1.00134	0.49999	1.18986e-06
1.8625	0.270833	1.40192	0.499993	1.00137	0.499993	1.19835e-06
1.8875	0.270833	1.40195	0.499996	1.00139	0.499996	1.19763e-06
1.9125	0.270833	1.40196	0.499999	1.0014	0.499999	1.1885e-06
1.9375	0.270833	1.40195	0.500001	1.0014	0.500001	1.17124e-06
1.9625	0.270833	1.40194	0.500003	1.00138	0.500003	1.14722e-06
1.9875	0.270833	1.40192	0.500005	1.00137	0.500005	1.1232e-06
0.0125	0.3125	1.4088	0.498683	1.00633	0.498694	4.17623e-05
0.0375	0.3125	1.41005	0.499801	1.00713	0.499789	4.72794e-05
0.0625	0.3125	1.41027	0.499999	1.00733	0.499997	4.69574e-05
0.0875	0.3125	1.41011	0.500038	1.00722	0.500037	4.53056e-05
0.1125	0.3125	1.40983	0.500054	1.00702	0.500054	4.30508e-05
0.1375	0.3125	1.40948	0.500068	1.00677	0.500067	4.03441e-05
0.1625	0.3125	1.40906	0.50008	1.00647	0.50008	3.73132e-05
0.1875	0.3125	1.40858	0.500091	1.00613	0.500091	3.40769e-05
0.2125	0.3125	1.40805	0.5001	1.00575	0.5001	3.07409e-05
0.2375	0.3125	1.40747	0.500109	1.00534	0.500108	2.73924e-05